
     Program PWSCF v.7.1 starts on 22Mar2023 at 23:15: 7 

     This program is part of the open-source Quantum ESPRESSO suite
     for quantum simulation of materials; please cite
         "P. Giannozzi et al., J. Phys.:Condens. Matter 21 395502 (2009);
         "P. Giannozzi et al., J. Phys.:Condens. Matter 29 465901 (2017);
         "P. Giannozzi et al., J. Chem. Phys. 152 154105 (2020);
          URL http://www.quantum-espresso.org", 
     in publications or presentations arising from this work. More details at
     http://www.quantum-espresso.org/quote

     Parallel version (MPI & OpenMP), running on      16 processor cores
     Number of MPI processes:                 1
     Threads/MPI process:                    16

     MPI processes distributed on     1 nodes
     117890 MiB available memory on the printing compute node when the environment starts

     Reading input from 025_b2.in

     Current dimensions of program PWSCF are:
     Max number of different atomic species (ntypx) = 10
     Max number of k-points (npk) =  40000
     Max angular momentum in pseudopotentials (lmaxx) =  4
     Message from routine iosys:
     pot_extrapolation='first_order' not available, using 'atomic'
     file C.UPF: wavefunction(s)  2S 2P renormalized
     file H.UPF: wavefunction(s)  1S renormalized
     file O.UPF: wavefunction(s)  2S 2P renormalized
     file N.UPF: wavefunction(s)  2S renormalized
     file S.UPF: wavefunction(s)  3S 3P renormalized

     Subspace diagonalization in iterative solution of the eigenvalue problem:
     a serial algorithm will be used


     G-vector sticks info
     --------------------
     sticks:   dense  smooth     PW     G-vecs:    dense   smooth      PW
     Sum       20045   20045   5465               871875   871875  124143

     Using Slab Decomposition



     bravais-lattice index     =            0
     lattice parameter (alat)  =      39.6842  a.u.
     unit-cell volume          =   13888.0724 (a.u.)^3
     number of atoms/cell      =           92
     number of atomic types    =            5
     number of electrons       =       258.00
     number of Kohn-Sham states=          155
     kinetic-energy cutoff     =      60.0000  Ry
     charge density cutoff     =     240.0000  Ry
     scf convergence threshold =      1.0E-12
     mixing beta               =       0.3000
     number of iterations used =            8  plain     mixing
     energy convergence thresh.=      1.0E-05
     force convergence thresh. =      1.0E-04
     press convergence thresh. =      5.0E-01
     Exchange-correlation= SLA  PW   PBX  PBC
                           (   1   4   3   4   0   0   0)
     nstep                     =         1000


     celldm(1)=  39.684249  celldm(2)=   0.000000  celldm(3)=   0.000000
     celldm(4)=   0.000000  celldm(5)=   0.000000  celldm(6)=   0.000000

     crystal axes: (cart. coord. in units of alat)
               a(1) = (   1.000000   0.000000   0.000000 )  
               a(2) = (   0.476190   0.666667   0.000000 )  
               a(3) = (   0.095238   0.285714   0.333333 )  

     reciprocal axes: (cart. coord. in units 2 pi/alat)
               b(1) = (  1.000000 -0.714286  0.326531 )  
               b(2) = (  0.000000  1.500000 -1.285714 )  
               b(3) = (  0.000000  0.000000  3.000000 )  


     PseudoPot. # 1 for C  read from file:
     ./C.UPF
     MD5 check sum: 5f16ad9a65e90284d1d834d4ab3b0f7d
     Pseudo is Projector augmented-wave + core cor, Zval =  4.0
     Generated using &quot;atomic&quot; code by A. Dal Corso  v.6.3
     Shape of augmentation charge: PSQ
     Using radial grid of 1073 points,  4 beta functions with: 
                l(1) =   0
                l(2) =   0
                l(3) =   1
                l(4) =   1
     Q(r) pseudized with 0 coefficients 


     PseudoPot. # 2 for H  read from file:
     ./H.UPF
     MD5 check sum: 8d6fbb64a3110289213aec18bba75243
     Pseudo is Projector augmented-wave, Zval =  1.0
     Generated using &quot;atomic&quot; code by A. Dal Corso  v.6.3MaX
     Shape of augmentation charge: PSQ
     Using radial grid of  929 points,  2 beta functions with: 
                l(1) =   0
                l(2) =   0
     Q(r) pseudized with 0 coefficients 


     PseudoPot. # 3 for O  read from file:
     ./O.UPF
     MD5 check sum: e99d9cef9b487d1ca56f5b95ecd0fd7a
     Pseudo is Projector augmented-wave + core cor, Zval =  6.0
     Generated using &quot;atomic&quot; code by A. Dal Corso  v.6.3
     Shape of augmentation charge: PSQ
     Using radial grid of 1095 points,  4 beta functions with: 
                l(1) =   0
                l(2) =   0
                l(3) =   1
                l(4) =   1
     Q(r) pseudized with 0 coefficients 


     PseudoPot. # 4 for N  read from file:
     ./N.UPF
     MD5 check sum: 14c48229446f9f2d411169a3abcbc3fa
     Pseudo is Projector augmented-wave + core cor, Zval =  5.0
     Generated using &quot;atomic&quot; code by A. Dal Corso  v.6.3
     Shape of augmentation charge: PSQ
     Using radial grid of 1085 points,  4 beta functions with: 
                l(1) =   0
                l(2) =   0
                l(3) =   1
                l(4) =   1
     Q(r) pseudized with 0 coefficients 


     PseudoPot. # 5 for S  read from file:
     ./S.UPF
     MD5 check sum: fb45dfebcf3e72a4e1bd4a866ec2e262
     Pseudo is Projector augmented-wave + core cor, Zval =  6.0
     Generated using &quot;atomic&quot; code by A. Dal Corso  v.6.3
     Shape of augmentation charge: PSQ
     Using radial grid of 1151 points,  6 beta functions with: 
                l(1) =   0
                l(2) =   0
                l(3) =   1
                l(4) =   1
                l(5) =   2
                l(6) =   2
     Q(r) pseudized with 0 coefficients 


     atomic species   valence    mass     pseudopotential
        C              4.00    12.01100     C ( 1.00)
        H              1.00     1.00800     H ( 1.00)
        O              6.00    15.99900     O ( 1.00)
        N              5.00    14.00700     N ( 1.00)
        S              6.00    32.06000     S ( 1.00)

     No symmetry found



   Cartesian axes

     site n.     atom                  positions (alat units)
         1           C   tau(   1) = (   0.5098507   0.2122852   0.2091539  )
         2           C   tau(   2) = (   0.9594761   0.8638403   0.2683274  )
         3           C   tau(   3) = (   0.9628768   0.7701085   0.1734727  )
         4           C   tau(   4) = (   0.5112487   0.1644835   0.1620998  )
         5           C   tau(   5) = (   0.9347148   0.8033124   0.2800589  )
         6           C   tau(   6) = (   0.9362000   0.7566527   0.2328859  )
         7           C   tau(   7) = (   0.5387504   0.2755142   0.1924208  )
         8           C   tau(   8) = (   0.9639290   0.7199742   0.1226003  )
         9           C   tau(   9) = (   0.8667491   0.2287697   0.0859925  )
        10           C   tau(  10) = (   0.9273879   0.2021058   0.0928873  )
        11           C   tau(  11) = (   0.9168721   0.3332196   0.0706786  )
        12           C   tau(  12) = (   0.8624224   0.2948075   0.0749775  )
        13           C   tau(  13) = (   0.9818743   0.2398706   0.0884800  )
        14           C   tau(  14) = (   0.9767690   0.3050841   0.0772651  )
        15           C   tau(  15) = (   0.8054127   0.1923831   0.0911846  )
        16           C   tau(  16) = (   0.9115225   0.4033266   0.0580714  )
        17           C   tau(  17) = (   0.2231022   0.4006103   0.2021922  )
        18           C   tau(  18) = (   0.2887922   0.3887489   0.2059444  )
        19           C   tau(  19) = (   0.3161812   0.3368565   0.1749271  )
        20           C   tau(  20) = (   0.2790586   0.2945775   0.1388012  )
        21           C   tau(  21) = (   0.2132868   0.3061358   0.1354819  )
        22           C   tau(  22) = (   1.1858969   0.3580325   0.1665035  )
        23           C   tau(  23) = (   0.6183663   0.4844444   0.0407995  )
        24           C   tau(  24) = (   0.7300007   0.5546101   0.0593218  )
        25           C   tau(  25) = (   0.6692343   0.4568169   0.0737091  )
        26           C   tau(  26) = (   0.6220456   0.5465961   0.0175018  )
        27           C   tau(  27) = (   0.7245652   0.4921603   0.0827795  )
        28           C   tau(  28) = (   0.6778951   0.5812182   0.0270750  )
        29           C   tau(  29) = (   0.7908359   0.5913934   0.0679399  )
        30           C   tau(  30) = (   0.3942704   0.6456113   0.2793595  )
        31           C   tau(  31) = (   0.3558744   0.4541566   0.0209438  )
        32           C   tau(  32) = (   1.3922601   0.7090276   0.2591553  )
        33           C   tau(  33) = (   0.3293692   0.3426716   0.0026134  )
        34           C   tau(  34) = (   1.4207803   0.7555923   0.2967221  )
        35           C   tau(  35) = (   0.3576542   0.3900295   0.0395821  )
        36           C   tau(  36) = (   0.3847878   0.5053455   0.0618329  )
        37           H   tau(  37) = (   0.4949094   0.2801310   0.3053445  )
        38           H   tau(  38) = (   0.5320546   0.1751597   0.1157941  )
        39           H   tau(  39) = (   0.9141254   0.7925519   0.3263040  )
        40           H   tau(  40) = (   0.9165391   0.7097992   0.2428817  )
        41           H   tau(  41) = (   0.5298320   0.3125123   0.2278130  )
        42           H   tau(  42) = (   0.5189011   0.2927898   0.1473740  )
        43           H   tau(  43) = (   0.5903927   0.2704797   0.1872161  )
        44           H   tau(  44) = (   0.9918897   0.7352146   0.0813117  )
        45           H   tau(  45) = (   0.9154021   0.7098441   0.1064997  )
        46           H   tau(  46) = (   0.9854467   0.6761438   0.1408724  )
        47           H   tau(  47) = (   0.8985799   0.1158613   0.1038092  )
        48           H   tau(  48) = (   0.8156238   0.3165878   0.0698201  )
        49           H   tau(  49) = (   1.0285779   0.2182224   0.0938141  )
        50           H   tau(  50) = (   1.0197883   0.3337083   0.0738426  )
        51           H   tau(  51) = (   0.8118227   0.1408240   0.0924374  )
        52           H   tau(  52) = (   0.7750620   0.2027016   0.0500262  )
        53           H   tau(  53) = (   0.7801990   0.2064220   0.1346190  )
        54           H   tau(  54) = (   0.8620040   0.4194724   0.0605329  )
        55           H   tau(  55) = (   0.9298576   0.4143789   0.0105490  )
        56           H   tau(  56) = (   0.9386224   0.4301903   0.0935949  )
        57           H   tau(  57) = (   1.2250528   0.4883527   0.2448068  )
        58           H   tau(  58) = (   1.1533328   0.4672251   0.2168911  )
        59           H   tau(  59) = (   0.3191334   0.4206447   0.2337567  )
        60           H   tau(  60) = (   0.3674963   0.3290200   0.1789720  )
        61           H   tau(  61) = (   0.3532638   0.2454684   0.0988285  )
        62           H   tau(  62) = (   0.2814202   0.2237615   0.0717667  )
        63           H   tau(  63) = (   0.1828547   0.2738930   0.1081880  )
        64           H   tau(  64) = (   1.1344945   0.3655171   0.1629748  )
        65           H   tau(  65) = (   0.6653770   0.4079838   0.0909173  )
        66           H   tau(  66) = (   0.6771837   0.8525876   0.3248244  )
        67           H   tau(  67) = (   0.7647442   0.4706485   0.1079285  )
        68           H   tau(  68) = (   0.6814002   0.6296873   0.0084717  )
        69           H   tau(  69) = (   0.8026420   0.5969708   0.1187112  )
        70           H   tau(  70) = (   0.8310987   0.5663322   0.0455753  )
        71           H   tau(  71) = (   0.7876799   0.6390284   0.0466368  )
        72           H   tau(  72) = (   0.4684831   0.4358352   0.0879904  )
        73           H   tau(  73) = (   1.3677582   0.7213127   0.2150599  )
        74           H   tau(  74) = (   0.3297943   0.2929718   0.0176295  )
        75           H   tau(  75) = (   1.4188590   0.8053417   0.2815272  )
        76           H   tau(  76) = (   0.3809796   0.3770403   0.0842456  )
        77           H   tau(  77) = (   0.4219818   0.5316469   0.0358894  )
        78           H   tau(  78) = (   1.3485427   0.5403921   0.0762327  )
        79           H   tau(  79) = (   0.4061461   0.4855094   0.1052291  )
        80           H   tau(  80) = (   0.3998428   0.5330567   0.1595462  )
        81           O   tau(  81) = (   0.9554500   0.9054326   0.3181279  )
        82           O   tau(  82) = (   0.9383695   0.1390156   0.1040786  )
        83           O   tau(  83) = (   0.5096863   0.4577933   0.0897548  )
        84           O   tau(  84) = (   0.5642589   0.3717041   0.0287698  )
        85           O   tau(  85) = (   0.6109599   0.7494563   0.3046140  )
        86           O   tau(  86) = (   0.4145170   0.5670143   0.1880861  )
        87           O   tau(  87) = (   1.3062577   0.6154026   0.1949564  )
        88           O   tau(  88) = (   0.3395179   0.5326267   0.2735295  )
        89           N   tau(  89) = (   1.1950784   0.4513546   0.2357545  )
        90           N   tau(  90) = (   0.3062777   0.2406723   0.1097844  )
        91           S   tau(  91) = (   0.5492950   0.4386145   0.0256431  )
        92           S   tau(  92) = (   0.3548427   0.5865884   0.2339427  )

     number of k points=    36  Gaussian smearing, width (Ry)=  0.0500
                       cart. coord. in units 2pi/alat
        k(    1) = (   0.0000000   0.0000000   0.0000000), wk =   0.0312500
        k(    2) = (   0.0000000   0.0000000   0.7500000), wk =   0.0625000
        k(    3) = (   0.0000000   0.0000000  -1.5000000), wk =   0.0312500
        k(    4) = (   0.0000000   0.3750000  -0.3214286), wk =   0.0625000
        k(    5) = (   0.0000000   0.3750000   0.4285714), wk =   0.0625000
        k(    6) = (   0.0000000   0.3750000  -1.8214286), wk =   0.0625000
        k(    7) = (   0.0000000   0.3750000  -1.0714286), wk =   0.0625000
        k(    8) = (   0.0000000  -0.7500000   0.6428571), wk =   0.0312500
        k(    9) = (   0.0000000  -0.7500000   1.3928571), wk =   0.0625000
        k(   10) = (   0.0000000  -0.7500000  -0.8571429), wk =   0.0312500
        k(   11) = (   0.2500000  -0.1785714   0.0816327), wk =   0.0625000
        k(   12) = (   0.2500000  -0.1785714   0.8316327), wk =   0.0625000
        k(   13) = (   0.2500000  -0.1785714  -1.4183673), wk =   0.0625000
        k(   14) = (   0.2500000  -0.1785714  -0.6683673), wk =   0.0625000
        k(   15) = (   0.2500000   0.1964286  -0.2397959), wk =   0.0625000
        k(   16) = (   0.2500000   0.1964286   0.5102041), wk =   0.0625000
        k(   17) = (   0.2500000   0.1964286  -1.7397959), wk =   0.0625000
        k(   18) = (   0.2500000   0.1964286  -0.9897959), wk =   0.0625000
        k(   19) = (   0.2500000  -0.9285714   0.7244898), wk =   0.0625000
        k(   20) = (   0.2500000  -0.9285714   1.4744898), wk =   0.0625000
        k(   21) = (   0.2500000  -0.9285714  -0.7755102), wk =   0.0625000
        k(   22) = (   0.2500000  -0.9285714  -0.0255102), wk =   0.0625000
        k(   23) = (   0.2500000  -0.5535714   0.4030612), wk =   0.0625000
        k(   24) = (   0.2500000  -0.5535714   1.1530612), wk =   0.0625000
        k(   25) = (   0.2500000  -0.5535714  -1.0969388), wk =   0.0625000
        k(   26) = (   0.2500000  -0.5535714  -0.3469388), wk =   0.0625000
        k(   27) = (  -0.5000000   0.3571429  -0.1632653), wk =   0.0312500
        k(   28) = (  -0.5000000   0.3571429   0.5867347), wk =   0.0625000
        k(   29) = (  -0.5000000   0.3571429  -1.6632653), wk =   0.0312500
        k(   30) = (  -0.5000000   0.7321429  -0.4846939), wk =   0.0625000
        k(   31) = (  -0.5000000   0.7321429   0.2653061), wk =   0.0625000
        k(   32) = (  -0.5000000   0.7321429  -1.9846939), wk =   0.0625000
        k(   33) = (  -0.5000000   0.7321429  -1.2346939), wk =   0.0625000
        k(   34) = (  -0.5000000  -0.3928571   0.4795918), wk =   0.0312500
        k(   35) = (  -0.5000000  -0.3928571   1.2295918), wk =   0.0625000
        k(   36) = (  -0.5000000  -0.3928571  -1.0204082), wk =   0.0312500

     Dense  grid:   871875 G-vectors     FFT dimensions: ( 200, 162,  90)
